[Molden Format]
[Title]
 Molden file created by orca_2mkl for BaseName=input4cpu

[Atoms] AU
C    1   6         19.8420571593         0.8434544351        -2.1208420449 
C    2   6         18.7442065340         1.0529018522         0.5135092024 
O    3   8         16.1012812069         1.5751676464         0.2643007404 
C    4   6         14.7906675864         1.7883071456         2.4557686828 
O    5   8         15.7591775898         1.5474763481         4.5248077877 
N    6   7         12.2942202809         2.3012116621         2.0371493542 
C    7   6         10.5767423340         2.4851447891         4.1767950432 
C    8   6          8.4840312747         0.4948428858         3.9969224940 
C    9   6          7.1291363608         0.6385905679         1.4436911913 
C   10   6          9.0463030098         0.4732552536        -0.7343510193 
C   11   6         11.1127757619         2.4759244726        -0.4462268355 
N   12   7          5.1657722817        -1.2678670708         1.2982660012 
C   13   6          3.1786891801        -1.1265945773        -0.3640715314 
N   14   7          2.9038102120         1.0167823917        -1.6820744841 
C   15   6          0.9322731174         1.1969550162        -3.2525727912 
C   16   6         -0.8408543565        -0.7052362150        -3.6218318129 
C   17   6         -0.5650843595        -2.9791239630        -2.2576121222 
C   18   6          1.4717261503        -3.1782623721        -0.6126539251 
C   19   6         -2.4295763343        -5.1036443546        -2.5856614791 
H   20   1         21.8812352523         0.4412428917        -2.0153515270 
H   21   1         18.9264972089        -0.6920287146        -3.1865547331 
H   22   1         19.5789036166         2.6161198503        -3.1787701579 
H   23   1         19.6443136936         2.5770264513         1.6120621417 
H   24   1         18.9965131898        -0.7043380875         1.6031386823 
H   25   1         11.6905981113         2.2629643672         5.9095400395 
H   26   1          9.7185393622         4.3926555368         4.1981668911 
H   27   1          9.3369055199        -1.3989450119         4.2279521591 
H   28   1          7.1128994695         0.7562875921         5.5427035364 
H   29   1          6.1722780098         2.4825731026         1.2893662492 
H   30   1          9.9183213512        -1.4232846212        -0.7389138545 
H   31   1          8.0481067725         0.7295123044        -2.5407865048 
H   32   1         12.5688765009         2.2766316462        -1.9012054135 
H   33   1         10.2662210152         4.3780050678        -0.6524624939 
H   34   1          5.5625029022        -2.9906157106         2.0293185121 
H   35   1          0.7661735339         2.9824568693        -4.2926581171 
H   36   1         -2.4051706985        -0.4409881935        -4.9425881606 
H   37   1          1.7580890899        -4.8980721458         0.4976156088 
H   38   1         -2.4648520081        -5.7589803980        -4.5636120449 
H   39   1         -1.9739731542        -6.7285854062        -1.3725404973 
H   40   1         -4.3603819994        -4.4701815274        -2.1243157325 
[GTO]
  1 0
s   5 1.0 
     1238.4016938000         0.8208956682
      186.2900499200         1.4766449896
       42.2511763460         2.1526124058
       11.6765579320         2.1081722461
        3.5930506482         0.8290999933
s   1 1.0 
        0.4024514736         0.3601183351
s   1 1.0 
        0.1309018267         0.1551027052
p   3 1.0 
        9.4680970621         1.3467645142
        2.0103545142         1.0678070931
        0.5477100471         0.5108735714
p   1 1.0 
        0.1526861379         0.1360471976
d   1 1.0 
        0.8000000000         1.9292013661

  2 0
s   5 1.0 
     1238.4016938000         0.8208956682
      186.2900499200         1.4766449896
       42.2511763460         2.1526124058
       11.6765579320         2.1081722461
        3.5930506482         0.8290999933
s   1 1.0 
        0.4024514736         0.3601183351
s   1 1.0 
        0.1309018267         0.1551027052
p   3 1.0 
        9.4680970621         1.3467645142
        2.0103545142         1.0678070931
        0.5477100471         0.5108735714
p   1 1.0 
        0.1526861379         0.1360471976
d   1 1.0 
        0.8000000000         1.9292013661

  3 0
s   5 1.0 
     2266.1767785000        -1.2615859742
      340.8701019100        -2.2748500410
       77.3631351670        -3.3479623295
       21.4796449400        -3.3299980531
        6.6589433124        -1.3203828288
s   1 1.0 
        0.8097597567         0.6083832301
s   1 1.0 
        0.2553077223         0.2559811911
p   3 1.0 
       17.7215043170         3.2460107647
        3.8635505440         2.5734959178
        1.0480920883         1.1208372892
p   1 1.0 
        0.2764154441         0.2856886381
d   1 1.0 
        1.2000000000         3.9222679946

  4 0
s   5 1.0 
     1238.4016938000         0.8208956682
      186.2900499200         1.4766449896
       42.2511763460         2.1526124058
       11.6765579320         2.1081722461
        3.5930506482         0.8290999933
s   1 1.0 
        0.4024514736         0.3601183351
s   1 1.0 
        0.1309018267         0.1551027052
p   3 1.0 
        9.4680970621         1.3467645142
        2.0103545142         1.0678070931
        0.5477100471         0.5108735714
p   1 1.0 
        0.1526861379         0.1360471976
d   1 1.0 
        0.8000000000         1.9292013661

  5 0
s   5 1.0 
     2266.1767785000        -1.2615859742
      340.8701019100        -2.2748500410
       77.3631351670        -3.3479623295
       21.4796449400        -3.3299980531
        6.6589433124        -1.3203828288
s   1 1.0 
        0.8097597567         0.6083832301
s   1 1.0 
        0.2553077223         0.2559811911
p   3 1.0 
       17.7215043170         3.2460107647
        3.8635505440         2.5734959178
        1.0480920883         1.1208372892
p   1 1.0 
        0.2764154441         0.2856886381
d   1 1.0 
        1.2000000000         3.9222679946

  6 0
s   5 1.0 
     1712.8415853000        -1.0337585405
      257.6481267700        -1.8620740805
       58.4582458530        -2.7290401880
       16.1983679050        -2.6956734544
        5.0052600809        -1.0640914367
s   1 1.0 
        0.5873185657         0.4781513534
s   1 1.0 
        0.1876459225         0.2031956662
p   3 1.0 
       13.5714702330        -2.1850243557
        2.9257372874        -1.7466999024
        0.7992775075        -0.8114650516
p   1 1.0 
        0.2195434803         0.2142105067
d   1 1.0 
        1.0000000000         2.8508218814

  7 0
s   5 1.0 
     1238.4016938000         0.8208956682
      186.2900499200         1.4766449896
       42.2511763460         2.1526124058
       11.6765579320         2.1081722461
        3.5930506482         0.8290999933
s   1 1.0 
        0.4024514736         0.3601183351
s   1 1.0 
        0.1309018267         0.1551027052
p   3 1.0 
        9.4680970621         1.3467645142
        2.0103545142         1.0678070931
        0.5477100471         0.5108735714
p   1 1.0 
        0.1526861379         0.1360471976
d   1 1.0 
        0.8000000000         1.9292013661

  8 0
s   5 1.0 
     1238.4016938000         0.8208956682
      186.2900499200         1.4766449896
       42.2511763460         2.1526124058
       11.6765579320         2.1081722461
        3.5930506482         0.8290999933
s   1 1.0 
        0.4024514736         0.3601183351
s   1 1.0 
        0.1309018267         0.1551027052
p   3 1.0 
        9.4680970621         1.3467645142
        2.0103545142         1.0678070931
        0.5477100471         0.5108735714
p   1 1.0 
        0.1526861379         0.1360471976
d   1 1.0 
        0.8000000000         1.9292013661

  9 0
s   5 1.0 
     1238.4016938000         0.8208956682
      186.2900499200         1.4766449896
       42.2511763460         2.1526124058
       11.6765579320         2.1081722461
        3.5930506482         0.8290999933
s   1 1.0 
        0.4024514736         0.3601183351
s   1 1.0 
        0.1309018267         0.1551027052
p   3 1.0 
        9.4680970621         1.3467645142
        2.0103545142         1.0678070931
        0.5477100471         0.5108735714
p   1 1.0 
        0.1526861379         0.1360471976
d   1 1.0 
        0.8000000000         1.9292013661

 10 0
s   5 1.0 
     1238.4016938000         0.8208956682
      186.2900499200         1.4766449896
       42.2511763460         2.1526124058
       11.6765579320         2.1081722461
        3.5930506482         0.8290999933
s   1 1.0 
        0.4024514736         0.3601183351
s   1 1.0 
        0.1309018267         0.1551027052
p   3 1.0 
        9.4680970621         1.3467645142
        2.0103545142         1.0678070931
        0.5477100471         0.5108735714
p   1 1.0 
        0.1526861379         0.1360471976
d   1 1.0 
        0.8000000000         1.9292013661

 11 0
s   5 1.0 
     1238.4016938000         0.8208956682
      186.2900499200         1.4766449896
       42.2511763460         2.1526124058
       11.6765579320         2.1081722461
        3.5930506482         0.8290999933
s   1 1.0 
        0.4024514736         0.3601183351
s   1 1.0 
        0.1309018267         0.1551027052
p   3 1.0 
        9.4680970621         1.3467645142
        2.0103545142         1.0678070931
        0.5477100471         0.5108735714
p   1 1.0 
        0.1526861379         0.1360471976
d   1 1.0 
        0.8000000000         1.9292013661

 12 0
s   5 1.0 
     1712.8415853000        -1.0337585405
      257.6481267700        -1.8620740805
       58.4582458530        -2.7290401880
       16.1983679050        -2.6956734544
        5.0052600809        -1.0640914367
s   1 1.0 
        0.5873185657         0.4781513534
s   1 1.0 
        0.1876459225         0.2031956662
p   3 1.0 
       13.5714702330        -2.1850243557
        2.9257372874        -1.7466999024
        0.7992775075        -0.8114650516
p   1 1.0 
        0.2195434803         0.2142105067
d   1 1.0 
        1.0000000000         2.8508218814

 13 0
s   5 1.0 
     1238.4016938000         0.8208956682
      186.2900499200         1.4766449896
       42.2511763460         2.1526124058
       11.6765579320         2.1081722461
        3.5930506482         0.8290999933
s   1 1.0 
        0.4024514736         0.3601183351
s   1 1.0 
        0.1309018267         0.1551027052
p   3 1.0 
        9.4680970621         1.3467645142
        2.0103545142         1.0678070931
        0.5477100471         0.5108735714
p   1 1.0 
        0.1526861379         0.1360471976
d   1 1.0 
        0.8000000000         1.9292013661

 14 0
s   5 1.0 
     1712.8415853000        -1.0337585405
      257.6481267700        -1.8620740805
       58.4582458530        -2.7290401880
       16.1983679050        -2.6956734544
        5.0052600809        -1.0640914367
s   1 1.0 
        0.5873185657         0.4781513534
s   1 1.0 
        0.1876459225         0.2031956662
p   3 1.0 
       13.5714702330        -2.1850243557
        2.9257372874        -1.7466999024
        0.7992775075        -0.8114650516
p   1 1.0 
        0.2195434803         0.2142105067
d   1 1.0 
        1.0000000000         2.8508218814

 15 0
s   5 1.0 
     1238.4016938000         0.8208956682
      186.2900499200         1.4766449896
       42.2511763460         2.1526124058
       11.6765579320         2.1081722461
        3.5930506482         0.8290999933
s   1 1.0 
        0.4024514736         0.3601183351
s   1 1.0 
        0.1309018267         0.1551027052
p   3 1.0 
        9.4680970621         1.3467645142
        2.0103545142         1.0678070931
        0.5477100471         0.5108735714
p   1 1.0 
        0.1526861379         0.1360471976
d   1 1.0 
        0.8000000000         1.9292013661

 16 0
s   5 1.0 
     1238.4016938000         0.8208956682
      186.2900499200         1.4766449896
       42.2511763460         2.1526124058
       11.6765579320         2.1081722461
        3.5930506482         0.8290999933
s   1 1.0 
        0.4024514736         0.3601183351
s   1 1.0 
        0.1309018267         0.1551027052
p   3 1.0 
        9.4680970621         1.3467645142
        2.0103545142         1.0678070931
        0.5477100471         0.5108735714
p   1 1.0 
        0.1526861379         0.1360471976
d   1 1.0 
        0.8000000000         1.9292013661

 17 0
s   5 1.0 
     1238.4016938000         0.8208956682
      186.2900499200         1.4766449896
       42.2511763460         2.1526124058
       11.6765579320         2.1081722461
        3.5930506482         0.8290999933
s   1 1.0 
        0.4024514736         0.3601183351
s   1 1.0 
        0.1309018267         0.1551027052
p   3 1.0 
        9.4680970621         1.3467645142
        2.0103545142         1.0678070931
        0.5477100471         0.5108735714
p   1 1.0 
        0.1526861379         0.1360471976
d   1 1.0 
        0.8000000000         1.9292013661

 18 0
s   5 1.0 
     1238.4016938000         0.8208956682
      186.2900499200         1.4766449896
       42.2511763460         2.1526124058
       11.6765579320         2.1081722461
        3.5930506482         0.8290999933
s   1 1.0 
        0.4024514736         0.3601183351
s   1 1.0 
        0.1309018267         0.1551027052
p   3 1.0 
        9.4680970621         1.3467645142
        2.0103545142         1.0678070931
        0.5477100471         0.5108735714
p   1 1.0 
        0.1526861379         0.1360471976
d   1 1.0 
        0.8000000000         1.9292013661

 19 0
s   5 1.0 
     1238.4016938000         0.8208956682
      186.2900499200         1.4766449896
       42.2511763460         2.1526124058
       11.6765579320         2.1081722461
        3.5930506482         0.8290999933
s   1 1.0 
        0.4024514736         0.3601183351
s   1 1.0 
        0.1309018267         0.1551027052
p   3 1.0 
        9.4680970621         1.3467645142
        2.0103545142         1.0678070931
        0.5477100471         0.5108735714
p   1 1.0 
        0.1526861379         0.1360471976
d   1 1.0 
        0.8000000000         1.9292013661

 20 0
s   3 1.0 
       13.0107010000         0.1634903809
        1.9622572000         0.2773515510
        0.4445379600         0.3157501452
s   1 1.0 
        0.1219496200         0.1470772262
p   1 1.0 
        0.8000000000         1.0784563492

 21 0
s   3 1.0 
       13.0107010000         0.1634903809
        1.9622572000         0.2773515510
        0.4445379600         0.3157501452
s   1 1.0 
        0.1219496200         0.1470772262
p   1 1.0 
        0.8000000000         1.0784563492

 22 0
s   3 1.0 
       13.0107010000         0.1634903809
        1.9622572000         0.2773515510
        0.4445379600         0.3157501452
s   1 1.0 
        0.1219496200         0.1470772262
p   1 1.0 
        0.8000000000         1.0784563492

 23 0
s   3 1.0 
       13.0107010000         0.1634903809
        1.9622572000         0.2773515510
        0.4445379600         0.3157501452
s   1 1.0 
        0.1219496200         0.1470772262
p   1 1.0 
        0.8000000000         1.0784563492

 24 0
s   3 1.0 
       13.0107010000         0.1634903809
        1.9622572000         0.2773515510
        0.4445379600         0.3157501452
s   1 1.0 
        0.1219496200         0.1470772262
p   1 1.0 
        0.8000000000         1.0784563492

 25 0
s   3 1.0 
       13.0107010000         0.1634903809
        1.9622572000         0.2773515510
        0.4445379600         0.3157501452
s   1 1.0 
        0.1219496200         0.1470772262
p   1 1.0 
        0.8000000000         1.0784563492

 26 0
s   3 1.0 
       13.0107010000         0.1634903809
        1.9622572000         0.2773515510
        0.4445379600         0.3157501452
s   1 1.0 
        0.1219496200         0.1470772262
p   1 1.0 
        0.8000000000         1.0784563492

 27 0
s   3 1.0 
       13.0107010000         0.1634903809
        1.9622572000         0.2773515510
        0.4445379600         0.3157501452
s   1 1.0 
        0.1219496200         0.1470772262
p   1 1.0 
        0.8000000000         1.0784563492

 28 0
s   3 1.0 
       13.0107010000         0.1634903809
        1.9622572000         0.2773515510
        0.4445379600         0.3157501452
s   1 1.0 
        0.1219496200         0.1470772262
p   1 1.0 
        0.8000000000         1.0784563492

 29 0
s   3 1.0 
       13.0107010000         0.1634903809
        1.9622572000         0.2773515510
        0.4445379600         0.3157501452
s   1 1.0 
        0.1219496200         0.1470772262
p   1 1.0 
        0.8000000000         1.0784563492

 30 0
s   3 1.0 
       13.0107010000         0.1634903809
        1.9622572000         0.2773515510
        0.4445379600         0.3157501452
s   1 1.0 
        0.1219496200         0.1470772262
p   1 1.0 
        0.8000000000         1.0784563492

 31 0
s   3 1.0 
       13.0107010000         0.1634903809
        1.9622572000         0.2773515510
        0.4445379600         0.3157501452
s   1 1.0 
        0.1219496200         0.1470772262
p   1 1.0 
        0.8000000000         1.0784563492

 32 0
s   3 1.0 
       13.0107010000         0.1634903809
        1.9622572000         0.2773515510
        0.4445379600         0.3157501452
s   1 1.0 
        0.1219496200         0.1470772262
p   1 1.0 
        0.8000000000         1.0784563492

 33 0
s   3 1.0 
       13.0107010000         0.1634903809
        1.9622572000         0.2773515510
        0.4445379600         0.3157501452
s   1 1.0 
        0.1219496200         0.1470772262
p   1 1.0 
        0.8000000000         1.0784563492

 34 0
s   3 1.0 
       13.0107010000         0.1634903809
        1.9622572000         0.2773515510
        0.4445379600         0.3157501452
s   1 1.0 
        0.1219496200         0.1470772262
p   1 1.0 
        0.8000000000         1.0784563492

 35 0
s   3 1.0 
       13.0107010000         0.1634903809
        1.9622572000         0.2773515510
        0.4445379600         0.3157501452
s   1 1.0 
        0.1219496200         0.1470772262
p   1 1.0 
        0.8000000000         1.0784563492

 36 0
s   3 1.0 
       13.0107010000         0.1634903809
        1.9622572000         0.2773515510
        0.4445379600         0.3157501452
s   1 1.0 
        0.1219496200         0.1470772262
p   1 1.0 
        0.8000000000         1.0784563492

 37 0
s   3 1.0 
       13.0107010000         0.1634903809
        1.9622572000         0.2773515510
        0.4445379600         0.3157501452
s   1 1.0 
        0.1219496200         0.1470772262
p   1 1.0 
        0.8000000000         1.0784563492

 38 0
s   3 1.0 
       13.0107010000         0.1634903809
        1.9622572000         0.2773515510
        0.4445379600         0.3157501452
s   1 1.0 
        0.1219496200         0.1470772262
p   1 1.0 
        0.8000000000         1.0784563492

 39 0
s   3 1.0 
       13.0107010000         0.1634903809
        1.9622572000         0.2773515510
        0.4445379600         0.3157501452
s   1 1.0 
        0.1219496200         0.1470772262
p   1 1.0 
        0.8000000000         1.0784563492

 40 0
s   3 1.0 
       13.0107010000         0.1634903809
        1.9622572000         0.2773515510
        0.4445379600         0.3157501452
s   1 1.0 
        0.1219496200         0.1470772262
p   1 1.0 
        0.8000000000         1.0784563492

[5D]
[7F]
[9G]
[MO]
 Sym=     1a
 Ene= -1.91600748561945E+01
 Spin= Alpha
 Occup= 2.000000
  1       0.000055859350
  2      -0.000330241490
  3      -0.004267799507
  4       0.000235059289
  5      -0.000046282630
  6      -0.000322525176
  7       0.000223533987
  8      -0.000025829204
  9      -0.001729279894
 10      -0.000118971890
 11       0.000185019590
 12      -0.000036495885
 13       0.000000817477
 14      -0.000001489562
 15       0.000051272484
 16      -0.000300256351
 17       0.014519087494
 18      -0.000726336019
 19       0.000142669967
 20       0.000386784818
 21      -0.003356865696
 22       0.000663358094
 23      -0.001413961420
 24       0.000208848817
 25      -0.000415561188
 26       0.000085969057
 27      -0.000619047407
 28       0.000261823424
 29      -0.988466066550
 30       0.044210818738
 31      -0.038342298200
 32       0.000609583606
 33      -0.000160594700
 34       0.002004499038
 35      -0.001237532386
 36       0.000356767439
 37      -0.006052571572
 38       0.000001681348
 39      -0.000075309979
 40       0.000015282255
 41      -0.000095236728
 42       0.000037963852
 43       0.000067101493
 44       0.001319681220
 45       0.005459303753
 46       0.000292101063
 47      -0.000063723390
 48      -0.000272683931
 49       0.006303371506
 50      -0.000905170698
 51      -0.012408234170
 52      -0.000982993375
 53       0.000747338118
 54      -0.000112969633
 55       0.000172162234
 56      -0.000106002578
 57       0.000706922414
 58      -0.001026929610
 59       0.004439900206
 60       0.000240366832
 61      -0.000055534625
 62       0.000095949397
 63      -0.002992440352
 64       0.000597468106
 65       0.000287835422
 66      -0.000308348496
 67       0.000323026266
 68      -0.000055939179
 69       0.000226614612
 70      -0.000107759626
 71      -0.000044712385
 72      -0.000161959144
 73      -0.001818534372
 74       0.000367231366
 75      -0.000105634162
 76       0.000242728574
 77       0.001065820408
 78      -0.000208372503
 79       0.002904266989
 80       0.000203205065
 81       0.000087741464
 82      -0.000026793030
 83      -0.000112274354
 84       0.000041451162
 85       0.000069255959
 86      -0.001353633203
 87       0.003636482161
 88      -0.000348372255
 89       0.000092341913
 90       0.000118154420
 91       0.002604695003
 92      -0.001122387696
 93      -0.000341084039
 94       0.000136747080
 95       0.000028340128
 96      -0.000024662064
 97       0.000086925014
 98      -0.000007552933
 99       0.000007755972
100      -0.000012899193
101      -0.000820336072
102       0.000055392662
103      -0.000029807441
104       0.000044613626
105      -0.001286806693
106       0.001066472531
107       0.000084837490
108       0.000010973455
109       0.000002806672
110       0.000018536094
111      -0.000061911285
112       0.000028194259
113       0.000008657992
114      -0.000065459033
115      -0.000043073157
116      -0.000085191402
117       0.000039890199
118      -0.000009017346
119       0.000919431685
120      -0.000925089385
121      -0.000212462600
122      -0.000006653926
123       0.000004846446
124      -0.000023375300
125       0.000024253164
126       0.000005868336
127      -0.000006055229
128       0.000083346007
129      -0.001463131140
130       0.000098829042
131      -0.000022490402
132      -0.000014942369
133      -0.000615309720
134      -0.000257168099
135      -0.000586939750
136       0.000031633664
137       0.000030084309
138      -0.000007155774
139       0.000027672862
140      -0.000047424877
141      -0.000027017221
142       0.000505669375
143       0.001437225046
144       0.000011858578
145       0.000012846981
146       0.000243465067
147      -0.000654901156
148      -0.000428830431
149       0.001222566190
150       0.000153506684
151       0.000075437565
152       0.000004325666
153      -0.000092168077
154       0.000064022058
155       0.000001195617
156       0.000021999406
157       0.000000405226
158      -0.000036016189
159       0.000004329828
160      -0.000007105072
161      -0.000401932577
162       0.000247392986
163      -0.000122199105
164       0.000005001899
165       0.000013386175
166       0.000017678378
167      -0.000014297807
168       0.000000726344
169       0.000006997164
170      -0.000092954235
171      -0.000492559104
172      -0.000012145045
173      -0.000019831532
174      -0.000030105867
175      -0.000044025480
176      -0.000005762274
177      -0.000036590313
178      -0.000008666822
179      -0.000008651273
180       0.000001556117
181       0.000001579524
182      -0.000011126940
183      -0.000001022461
184      -0.000017437957
185       0.000097236360
186       0.000004695243
187      -0.000001602088
188       0.000017471802
189       0.000066196968
190      -0.000067014393
191       0.000120895921
192      -0.000000504332
193      -0.000000624427
194      -0.000004382674
195      -0.000005580903
196      -0.000000442696
197      -0.000001732744
198       0.000020913948
199       0.000034303866
200       0.000009553832
201       0.000002649991
202       0.000006913893
203       0.000050004068
204       0.000017390317
205       0.000009825020
206      -0.000003787549
207       0.000002438966
208       0.000001605921
209       0.000004176928
210       0.000002906877
211       0.000000015897
212       0.000002837511
213       0.000097548410
214      -0.000000965349
215      -0.000003520146
216       0.000000529416
217       0.000028630294
218      -0.000005848151
219       0.000024650965
220       0.000000558205
221       0.000000640379
222       0.000000157828
223      -0.000000799242
224      -0.000002463757
225      -0.000000142934
226       0.000008293940
227      -0.000122639424
228       0.000003831353
229       0.000002059456
230      -0.000002211494
231      -0.000086143843
232      -0.000080902202
233       0.000002918446
234       0.000002258437
235      -0.000000830814
236       0.000000073998
237      -0.000001071789
238      -0.000001089904
239       0.000000985434
240      -0.000025065653
241       0.000281782329
242      -0.000005807391
243       0.000000842335
244       0.000005021572
245       0.000066131772
246       0.000109045577
247      -0.000043320090
248      -0.000003959694
249       0.000002069086
250      -0.000000736221
251      -0.000000901635
252       0.000005108463
253       0.000000536571
254      -0.000007204206
255      -0.000048444176
256      -0.000002381599
257      -0.000001666399
258      -0.000000761897
259      -0.000001557790
260      -0.000014344002
261      -0.000001580826
262      -0.000000283532
263       0.000000125463
264      -0.000000459379
265       0.000000513718
266       0.000000503509
267       0.000175356338
268       0.001175920901
269      -0.000140042920
270       0.000025966589
271       0.000130572078
272      -0.000045682510
273      -0.000243190750
274       0.000140313766
275      -0.000081363636
276      -0.000147353678
277      -0.000052118611
278      -0.000251406014
279       0.000160106487
280       0.000023456807
281      -0.000148433943
282      -0.001202348240
283      -0.002114816333
284       0.000465264628
285       0.000047777628
286       0.000134009549
287      -0.001219769409
288      -0.002067436146
289       0.000411848887
290      -0.000208542062
291       0.000133613842
292      -0.000487380991
293      -0.000355548973
294       0.000112421489
295       0.000025893540
296      -0.000025669027
297       0.000158952711
298       0.000088312081
299      -0.000179873100
300      -0.000102886890
301       0.000058798265
302       0.000244785172
303       0.000739675087
304      -0.000024795995
305       0.000013553781
306      -0.000001927944
307      -0.000137698682
308      -0.000194548440
309       0.000089224907
310      -0.000044628067
311       0.000047822792
312       0.000232901235
313       0.000542689827
314      -0.000030874627
315      -0.000046447623
316      -0.000007774917
317       0.000235641196
318      -0.000378357419
319       0.000057921178
320      -0.000042325761
321       0.000003887212
322      -0.000091998141
323      -0.000013859938
324       0.000041274337
325       0.000029464145
326      -0.000026697853
327      -0.000156315443
328       0.001176105724
329       0.000011097838
330       0.000022956548
331       0.000148692578
332       0.000062076510
333      -0.000377410311
334       0.000050841421
335       0.000032032981
336      -0.000035015603
337       0.000122511176
338       0.000061415511
339       0.000010695364
340       0.000022808274
341      -0.000018169311
342      -0.000000587221
343      -0.000012805476
344      -0.000001756734
345       0.000000026768
346       0.000001076408
347       0.000001445455
348       0.000004842588
349       0.000000405635
350       0.000000708622
351      -0.000000105805
352       0.000004182134
353      -0.000003868646
354      -0.000006302002
355      -0.000001297826
356       0.000001023850
357       0.000000856937
358       0.000004818473
359      -0.000000900463
360       0.000000794269
361       0.000000414523
362      -0.000000987771
363       0.000007159485
364       0.000000021150
365       0.000001218691
366       0.000000484481
367       0.000002768376
368       0.000003537971
369      -0.000000856754
370      -0.000001158408
371      -0.000000732126
 Sym=     1a
 Ene= -1.90898749617837E+01
 Spin= Alpha
 Occup= 2.000000
  1       0.000005710124
  2      -0.000215521345
  3       0.000725168547
  4       0.000011449246
  5      -0.000002431508
  6      -0.000010554137
  7      -0.000365608148
  8       0.000080516849
  9       0.000417849695
 10       0.000046289624
 11      -0.000046232504
 12       0.000009768967
 13       0.000026383655
 14      -0.000011063990
 15      -0.000013402163
 16       0.000261440851
 17       0.001639728269
 18      -0.000303231677
 19       0.000067299734
 20      -0.000218396453
 21      -0.000515358193
 22       0.000079894279
 23       0.000691770951
 24      -0.000139894245
 25       0.000275319661
 26      -0.000048107911
 27      -0.000033616513
 28       0.000018546724
 29      -0.000902605900
 30      -0.000871290978
 31       0.004589302694
 32       0.000469653267
 33      -0.000108375377
 34      -0.000178822657
 35      -0.004501697137
 36       0.000958731897
 37      -0.000136012817
 38      -0.000337726842
 39      -0.000215221955
 40       0.000051934825
 41       0.000117171195
 42      -0.000049354626
 43       0.000293377345
 44       0.001944234498
 45       0.007290278434
 46      -0.000181455742
 47       0.000036430933
 48      -0.000294232777